 Gaussian 09, Revision A.02,
 Gaussian 09:  EM64L-G09RevA.02 11-Jun-2009

 ----------------------------------------------------------------------
 #p test guess(read) geom(angle,checkpoint) gfinput prop maxdisk=1900mb
  iop(6/7=3) nosym scf(conver=10) freq(hpmodes,vcd) b3lyp integral(grid
 =ultrafine) gen pseudo(read)
 ----------------------------------------------------------------------

 title
 -----
 Redundant internal coordinates taken from checkpoint file:
 chk.chk
 Charge =  0 Multiplicity = 1

                          Input orientation:
 ---------------------------------------------------------------------
 Center     Atomic      Atomic             Coordinates (Angstroms)
 Number     Number       Type             X           Y           Z
 ---------------------------------------------------------------------
      1         16           0       -0.104257   -0.060329   -0.022910
      2          6           0       -0.020899    0.067749    1.812373
      3          6           0        1.443420   -0.004037    2.215316
      4          8           0        2.055831   -1.016316    1.401819
      5          6           0        1.678478   -0.364070    3.677767
      6          1           0        2.750497   -0.430127    3.885709
      7          1           0        1.216790   -1.327879    3.916115
      8          1           0        1.246664    0.404771    4.328026
      9          1           0       -0.477434    1.016184    2.110339
     10          1           0       -0.589712   -0.756032    2.255543
     11          1           0        1.935997    0.948203    1.974686
     12         75           0        1.862926   -1.394997   -0.461713
     13          8           0        1.745471   -3.106054   -0.533762
     14          8           0        3.299061   -0.738095   -1.142056
     15          6           0        0.858852   -1.150844   -2.382508
     16          1           0       -0.134595   -1.597857   -2.369133
     17          1           0        1.517896   -1.701941   -3.061233
     18          1           0        0.814624   -0.102063   -2.676491
 ---------------------------------------------------------------------

 SCF Done:  E(RB3LYP) =  -860.110860354     A.U. after    1 cycles

  1  S    Isotropic =   328.4176   Anisotropy =   321.6277

  2  C    Isotropic =   139.5677   Anisotropy =    40.3560

  3  C    Isotropic =   103.7996   Anisotropy =    54.4260

  4  O    Isotropic =    50.1297   Anisotropy =   161.4392

  5  C    Isotropic =   168.1993   Anisotropy =    32.4385

  6  H    Isotropic =    30.6490   Anisotropy =     8.6745

  7  H    Isotropic =    31.0074   Anisotropy =     6.4137

  8  H    Isotropic =    31.0594   Anisotropy =     8.1997

  9  H    Isotropic =    29.3817   Anisotropy =     7.6619

 10  H    Isotropic =    29.0793   Anisotropy =     6.7997

 11  H    Isotropic =    27.4537   Anisotropy =     4.3276

 12  Re   Isotropic =  -225.8400   Anisotropy =    44.4102

 13  O    Isotropic =  -511.1743   Anisotropy =   412.6069

 14  O    Isotropic =  -543.8365   Anisotropy =   471.1394

 15  C    Isotropic =   158.1059   Anisotropy =    41.2492

 16  H    Isotropic =    30.1934   Anisotropy =     4.5035

 17  H    Isotropic =    30.1786   Anisotropy =     7.8011

 18  H    Isotropic =    30.2143   Anisotropy =     4.1154

 Alpha  occ. eigenvalues --  -88.86674 -19.20120 -19.19828 -19.19464 -10.26893
 Alpha  occ. eigenvalues --  -10.22784 -10.19731 -10.19382  -7.94421  -5.90776
 Alpha  occ. eigenvalues --   -5.90374  -5.89952  -3.34709  -1.91397  -1.90033
 Alpha  occ. eigenvalues --   -1.89035  -1.03484  -0.96747  -0.94907  -0.81355
 Alpha  occ. eigenvalues --   -0.75727  -0.70780  -0.65765  -0.61159  -0.53133
 Alpha  occ. eigenvalues --   -0.49610  -0.47153  -0.45938  -0.45616  -0.45391
 Alpha  occ. eigenvalues --   -0.43796  -0.42961  -0.41513  -0.40888  -0.40630
 Alpha  occ. eigenvalues --   -0.38976  -0.38713  -0.36893  -0.33887  -0.33230
 Alpha  occ. eigenvalues --   -0.32363  -0.31296  -0.30028  -0.25946
 Alpha virt. eigenvalues --   -0.11442  -0.10992  -0.06543  -0.03553  -0.01056
 Alpha virt. eigenvalues --    0.00701   0.01393   0.02210   0.02567   0.05054
 Alpha virt. eigenvalues --    0.06873   0.08245   0.08688   0.09528   0.09687

 Mulliken atomic charges:
              1
     1  S    0.003766
     2  C   -0.450294
     3  C    0.170775
     4  O   -0.613842
     5  C   -0.475066
     6  H    0.185419
     7  H    0.177046
     8  H    0.159552
     9  H    0.195012
    10  H    0.204000
    11  H    0.176374
    12  Re   1.310275
    13  O   -0.527437
    14  O   -0.529533
    15  C   -0.683840
    16  H    0.234310
    17  H    0.230084
    18  H    0.233398
 Sum of Mulliken atomic charges =   0.00000

 Dipole moment (field-independent basis, Debye):
    X=             -1.6238    Y=              1.8786    Z=              2.4896  Tot=              3.5162
 Quadrupole moment (field-independent basis, Debye-Ang):
   XX=            -89.0527   YY=            -87.2074   ZZ=            -69.0507
   XY=              4.2022   XZ=              3.4010   YZ=              2.0528

  Exact polarizability: 102.426 -10.447  96.851  -4.966  15.614 138.687
 Approx polarizability: 205.271 -13.388 203.576 -22.993  19.578 220.285

                     1                      2                      3
                     A                      A                      A
 Frequencies --    72.9057                99.4591               154.3205
 Red. masses --     3.7029                 4.8561                 2.9177
 Frc consts  --     0.0116                 0.0283                 0.0409
 IR Inten    --     1.7447                 0.4090                 2.4632

                     4                      5                      6
                     A                      A                      A
 Frequencies --   206.6995               215.7627               231.2433
 Red. masses --     4.0719                 1.9778                 1.2008
 Frc consts  --     0.1025                 0.0542                 0.0378
 IR Inten    --     2.6503                 0.4333                 0.0369

                     7                      8                      9
                     A                      A                      A
 Frequencies --   245.1089               248.9199               272.8888
 Red. masses --     3.5984                 2.1334                 4.4858
 Frc consts  --     0.1274                 0.0779                 0.1968
 IR Inten    --     1.8450                 2.4630                 4.1997

                    10                     11                     12
                     A                      A                      A
 Frequencies --   282.8022               296.0294               333.4108
 Red. masses --     5.1393                 5.3831                15.5668
 Frc consts  --     0.2422                 0.2779                 1.0195
 IR Inten    --     2.7288                 6.2496                 2.8707

                    13                     14                     15
                     A                      A                      A
 Frequencies --   365.4177               435.8254               501.6192
 Red. masses --     7.0891                 4.4977                 4.3988
 Frc consts  --     0.5577                 0.5033                 0.6521
 IR Inten    --     6.9772                 1.2527                 0.5042

                    16                     17                     18
                     A                      A                      A
 Frequencies --   520.0310               637.8005               738.2391
 Red. masses --     2.8625                 5.3514                 4.8261
 Frc consts  --     0.4561                 1.2826                 1.5497
 IR Inten    --     3.2222                75.0040                 0.1025

                    19                     20                     21
                     A                      A                      A
 Frequencies --   838.9042               865.1264               888.1257
 Red. masses --     1.2440                 1.1732                 2.4139
 Frc consts  --     0.5158                 0.5173                 1.1218
 IR Inten    --     6.0043                 0.2744                37.8734

                    22                     23                     24
                     A                      A                      A
 Frequencies --   912.7573               967.2544               975.4144
 Red. masses --     1.4441                 2.2248                14.9684
 Frc consts  --     0.7089                 1.2264                 8.3908
 IR Inten    --     3.2152                77.5255               126.2492

                    25                     26                     27
                     A                      A                      A
 Frequencies --  1002.8267              1045.1915              1102.1192
 Red. masses --    13.9736                 1.7365                 1.9589
 Frc consts  --     8.2796                 1.1177                 1.4019
 IR Inten    --   122.9915                62.9024                29.0635

                    28                     29                     30
                     A                      A                      A
 Frequencies --  1159.5267              1217.8854              1271.9932
 Red. masses --     2.0097                 1.5377                 1.2655
 Frc consts  --     1.5920                 1.3438                 1.2064
 IR Inten    --    12.3475                17.5905                 4.9859

                    31                     32                     33
                     A                      A                      A
 Frequencies --  1277.9787              1372.5880              1388.3719
 Red. masses --     1.1700                 1.1651                 1.4101
 Frc consts  --     1.1259                 1.2933                 1.6014
 IR Inten    --    11.5635                21.1142                 6.0645

                    34                     35                     36
                     A                      A                      A
 Frequencies --  1435.4335              1475.3539              1489.8879
 Red. masses --     1.2640                 1.0621                 1.0617
 Frc consts  --     1.5345                 1.3621                 1.3886
 IR Inten    --     5.4527                 9.2810                 2.9420

                    37                     38                     39
                     A                      A                      A
 Frequencies --  1503.4609              1513.3159              1525.6309
 Red. masses --     1.1038                 1.0466                 1.0471
 Frc consts  --     1.4701                 1.4122                 1.4359
 IR Inten    --     3.7804                 5.7397                 5.7538

                    40                     41                     42
                     A                      A                      A
 Frequencies --  3039.1275              3061.0844              3076.0176
 Red. masses --     1.0851                 1.0353                 1.0323
 Frc consts  --     5.9048                 5.7155                 5.7546
 IR Inten    --    23.5316                12.6699                 1.4130

                    43                     44                     45
                     A                      A                      A
 Frequencies --  3078.7600              3131.4436              3136.9479
 Red. masses --     1.0583                 1.1047                 1.1055
 Frc consts  --     5.9100                 6.3822                 6.4097
 IR Inten    --    18.8245                 5.9037                14.2248

                    46                     47                     48
                     A                      A                      A
 Frequencies --  3143.6516              3175.1615              3209.5900
 Red. masses --     1.1037                 1.0997                 1.1078
 Frc consts  --     6.4263                 6.5323                 6.7236
 IR Inten    --    17.4420                 3.6070                 1.4210

 - Thermochemistry -
 -------------------
 Temperature   298.150 Kelvin.  Pressure   1.00000 Atm.
 Atom     1 has atomic number 16 and mass  31.97207

 Molecular mass:   323.98324 amu.
 Principal axes and moments of inertia in atomic units:
                           1         2         3
     Eigenvalues --  1083.634802356.420962891.39867
           X           -0.23311   0.83439   0.49945
           Y            0.36358  -0.40157   0.84056
           Z            0.90193   0.37753  -0.20976
 This molecule is an asymmetric top.
 Rotational symmetry number  1.
 Warning -- assumption of classical behavior for rotation
           may cause significant error
 Rotational temperatures (Kelvin)      0.07993     0.03676     0.02996
 Rotational constants (GHZ):           1.66545     0.76588     0.62418
 Zero-point vibrational energy     353732.2 (Joules/Mol)
                                   84.54404 (Kcal/Mol)
 Warning -- explicit consideration of  16 degrees of freedom as
           vibrations may cause significant error
 Vibrational temperatures:    104.89   143.10   222.03   297.39   310.43
          (Kelvin)            332.71   352.66   358.14   392.63   406.89
                              425.92   479.70   525.75   627.05   721.72
                              748.21   917.65  1062.16  1206.99  1244.72
                             1277.81  1313.25  1391.66  1403.40  1442.84
                             1503.80  1585.70  1668.30  1752.26  1830.11
                             1838.72  1974.85  1997.55  2065.27  2122.70
                             2143.61  2163.14  2177.32  2195.04  4372.62
                             4404.21  4425.70  4429.64  4505.44  4513.36
                             4523.01  4568.34  4617.88

 Zero-point correction=                           0.134729 (Hartree/Particle)
 Thermal correction to Energy=                    0.145816
 Thermal correction to Enthalpy=                  0.146760
 Thermal correction to Gibbs Free Energy=         0.097274
 Sum of electronic and zero-point Energies=           -859.976131
 Sum of electronic and thermal Energies=              -859.965044
 Sum of electronic and thermal Enthalpies=            -859.964100
 Sum of electronic and thermal Free Energies=         -860.013586

                     E (Thermal)             CV                S
                      KCal/Mol        Cal/Mol-Kelvin    Cal/Mol-Kelvin
 Total                   91.501             39.950            104.152
 Electronic               0.000              0.000              0.000
 Translational            0.889              2.981             43.222
 Rotational               0.889              2.981             30.380
 Vibrational             89.723             33.989             30.550
 Vibration     1          0.599              1.967              4.073
 Vibration     2          0.604              1.949              3.465
 Vibration     3          0.620              1.898              2.618
 Vibration     4          0.641              1.830              2.073
 Vibration     5          0.645              1.817              1.994
 Vibration     6          0.653              1.793              1.869
 Vibration     7          0.660              1.771              1.765
 Vibration     8          0.662              1.765              1.738
 Vibration     9          0.676              1.723              1.578
 Vibration    10          0.682              1.706              1.517
 Vibration    11          0.690              1.681              1.439
 Vibration    12          0.715              1.609              1.244
 Vibration    13          0.739              1.543              1.099
 Vibration    14          0.796              1.392              0.840
 Vibration    15          0.857              1.246              0.654
 Vibration    16          0.875              1.206              0.610

 Optimization completed.
    -- Stationary point found.
 Normal termination of Gaussian 09 at Wed May 16 14:20:13 2012.
